# vsim tb_ProgramCounter 
# Start time: 17:35:56 on Jun 26,2025
# Loading work.tb_ProgramCounter
# Loading work.ProgramCounter
add wave -position insertpoint  \
sim:/tb_ProgramCounter/Areset \
sim:/tb_ProgramCounter/clk \
sim:/tb_ProgramCounter/ImmExt \
sim:/tb_ProgramCounter/load \
sim:/tb_ProgramCounter/PC \
sim:/tb_ProgramCounter/PCnext \
sim:/tb_ProgramCounter/PCSrc
run
# Time	Reset	Load	PCSrc	PCnext	ImmExt	PC
# 0	0	0	0	00000004	00000008	00000000
run
run
run
run
run
run
run
run
run
run
run
run
run
run
run
run
run
run
run
run
run
run
run
# 3000	1	0	0	00000004	00000008	00000000
# 5000	0	0	0	00000004	00000008	00000000
run
# 15000	1	0	0	00000004	00000008	00000000
# 20000	1	1	0	00000010	00000008	00000000
run
# 25000	1	1	0	00000010	00000008	00000010
# 30000	1	1	1	00000010	00000004	00000010
run
# 35000	1	1	1	00000010	00000004	00000014
# 40000	1	0	1	00000010	00000004	00000014
run
# 50000	1	1	0	00000020	00000004	00000014
run
# 55000	1	1	0	00000020	00000004	00000020
run
# ** Note: $finish    : testProgCount.v(55)
#    Time: 70 ns  Iteration: 0  Instance: /tb_ProgramCounter
# 1
# Break in Module tb_ProgramCounter at testProgCount.v line 55
run
quit
# End time: 17:40:00 on Jun 26,2025, Elapsed time: 0:04:04
# Errors: 0, Warnings: 0
